<?xml version="1.0" encoding="UTF-8"?>

<!-- generated on 2025-04-08 01:13:07 by Eclipse SUMO GUI Version 1.22.0
<sumoConfiguration xmlns:xsi="http://www.w3.org/2001/XMLSchema-instance" xsi:noNamespaceSchemaLocation="http://sumo.dlr.de/xsd/sumoConfiguration.xsd">

    <input>
        <net-file value="C:\Users\rawat\2025-04-07-19-50-33\osm.net.xml.gz"/>
        <route-files value="C:\Users\rawat\2025-04-07-19-50-33\osm.passenger.trips.xml,C:\Users\rawat\2025-04-07-19-50-33\emergency_routes.xml"/>
        <additional-files value="C:\Users\rawat\2025-04-07-19-50-33\osm.poly.xml.gz,C:\Users\rawat\2025-04-07-19-50-33\vehicle_types.add.xml,C:\Users\rawat\2025-04-07-19-50-33\traffic_signals.add.xml"/>
    </input>

    <output>
        <summary-output value="C:\Users\rawat\2025-04-07-19-50-33\summary.xml"/>
        <tripinfo-output value="C:\Users\rawat\2025-04-07-19-50-33\tripinfo.xml"/>
    </output>

    <processing>
        <ignore-route-errors value="true"/>
        <time-to-teleport value="-1"/>
        <tls.actuated.jam-threshold value="30"/>
    </processing>

    <routing>
        <device.rerouting.adaptation-steps value="18"/>
        <device.rerouting.adaptation-interval value="10"/>
    </routing>

    <report>
        <verbose value="true"/>
        <duration-log.statistics value="true"/>
        <no-step-log value="true"/>
    </report>

    <gui_only>
        <gui-settings-file value="C:\Users\rawat\2025-04-07-19-50-33\osm.view.xml"/>
    </gui_only>

</sumoConfiguration>
-->

<tripinfos xmlns:xsi="http://www.w3.org/2001/XMLSchema-instance" xsi:noNamespaceSchemaLocation="http://sumo.dlr.de/xsd/tripinfo_file.xsd">
    <tripinfo id="veh25" depart="29.00" departLane="-658691824#1_0" departPos="5.10" departSpeed="0.00" departDelay="0.61" arrival="93.00" arrivalLane="-22853292#6_0" arrivalPos="27.38" arrivalSpeed="11.71" duration="64.00" routeLength="394.15" waitingTime="22.00" waitingCount="1" stopTime="0.00" timeLoss="37.17" rerouteNo="1" devices="tripinfo_veh25 routing_veh25" vType="veh_passenger" speedFactor="0.92" vaporized=""/>
    <tripinfo id="veh54" depart="62.00" departLane="1240758488#1_0" departPos="5.10" departSpeed="0.00" departDelay="0.67" arrival="96.00" arrivalLane="-22852973#1_0" arrivalPos="68.40" arrivalSpeed="13.52" duration="34.00" routeLength="601.92" waitingTime="0.00" waitingCount="0" stopTime="0.00" timeLoss="8.68" rerouteNo="1" devices="tripinfo_veh54 routing_veh54" vType="veh_passenger" speedFactor="1.00" vaporized=""/>
    <tripinfo id="veh6" depart="7.00" departLane="-1187274538_0" departPos="5.10" departSpeed="12.31" departDelay="0.19" arrival="99.00" arrivalLane="-22853132#5_0" arrivalPos="20.35" arrivalSpeed="11.35" duration="92.00" routeLength="890.32" waitingTime="0.00" waitingCount="0" stopTime="0.00" timeLoss="18.34" rerouteNo="1" devices="tripinfo_veh6 routing_veh6" vType="veh_passenger" speedFactor="0.89" vaporized=""/>
    <tripinfo id="veh2" depart="3.00" departLane="22852748#0_0" departPos="5.10" departSpeed="24.06" departDelay="0.73" arrival="100.00" arrivalLane="22852570#5_0" arrivalPos="122.95" arrivalSpeed="14.80" duration="97.00" routeLength="1475.02" waitingTime="0.00" waitingCount="0" stopTime="0.00" timeLoss="21.55" rerouteNo="1" devices="tripinfo_veh2 routing_veh2" vType="veh_passenger" speedFactor="1.08" vaporized=""/>
    <tripinfo id="veh26" depart="30.00" departLane="-22853166#1_0" departPos="5.10" departSpeed="0.00" departDelay="0.47" arrival="107.00" arrivalLane="72245644#10_0" arrivalPos="25.63" arrivalSpeed="12.47" duration="77.00" routeLength="1028.75" waitingTime="0.00" waitingCount="0" stopTime="0.00" timeLoss="15.79" rerouteNo="1" devices="tripinfo_veh26 routing_veh26" vType="veh_passenger" speedFactor="0.95" vaporized=""/>
    <tripinfo id="veh16" depart="19.00" departLane="1212987321_0" departPos="5.10" departSpeed="0.00" departDelay="0.83" arrival="108.00" arrivalLane="789140995_0" arrivalPos="55.58" arrivalSpeed="12.77" duration="89.00" routeLength="715.77" waitingTime="0.00" waitingCount="0" stopTime="0.00" timeLoss="17.88" rerouteNo="1" devices="tripinfo_veh16 routing_veh16" vType="veh_passenger" speedFactor="0.94" vaporized=""/>
    <tripinfo id="veh5" depart="6.00" departLane="-22852318_0" departPos="5.10" departSpeed="14.53" departDelay="0.32" arrival="111.00" arrivalLane="1245529080#4_0" arrivalPos="131.80" arrivalSpeed="23.57" duration="105.00" routeLength="1265.95" waitingTime="0.00" waitingCount="0" stopTime="0.00" timeLoss="24.49" rerouteNo="1" devices="tripinfo_veh5 routing_veh5" vType="veh_passenger" speedFactor="1.05" vaporized=""/>
    <tripinfo id="veh31" depart="36.00" departLane="-123854737#5_0" departPos="5.10" departSpeed="0.00" departDelay="0.79" arrival="124.00" arrivalLane="22852736#2_0" arrivalPos="14.13" arrivalSpeed="10.17" duration="88.00" routeLength="1124.42" waitingTime="0.00" waitingCount="0" stopTime="0.00" timeLoss="26.25" rerouteNo="1" devices="tripinfo_veh31 routing_veh31" vType="veh_passenger" speedFactor="1.01" vaporized=""/>
    <tripinfo id="veh32" depart="37.00" departLane="22854001#0_1" departPos="5.10" departSpeed="32.55" departDelay="0.66" arrival="140.00" arrivalLane="22853699#4_0" arrivalPos="8.10" arrivalSpeed="17.49" duration="103.00" routeLength="1537.27" waitingTime="31.00" waitingCount="1" stopTime="0.00" timeLoss="54.81" rerouteNo="1" devices="tripinfo_veh32 routing_veh32" vType="veh_passenger" speedFactor="1.17" vaporized=""/>
    <tripinfo id="veh84" depart="96.00" departLane="1138265653_0" departPos="5.10" departSpeed="0.00" departDelay="0.60" arrival="150.00" arrivalLane="22853798#11_0" arrivalPos="20.00" arrivalSpeed="10.92" duration="54.00" routeLength="615.57" waitingTime="5.00" waitingCount="2" stopTime="0.00" timeLoss="28.32" rerouteNo="1" devices="tripinfo_veh84 routing_veh84" vType="veh_passenger" speedFactor="0.97" vaporized=""/>
    <tripinfo id="veh4" depart="5.00" departLane="935249341#7_0" departPos="5.10" departSpeed="0.00" departDelay="0.46" arrival="159.00" arrivalLane="-1190133777#0_0" arrivalPos="0.20" arrivalSpeed="10.76" duration="154.00" routeLength="2237.50" waitingTime="15.00" waitingCount="1" stopTime="0.00" timeLoss="35.86" rerouteNo="1" devices="tripinfo_veh4 routing_veh4" vType="veh_passenger" speedFactor="0.83" vaporized=""/>
    <tripinfo id="veh30" depart="35.00" departLane="-787877206_0" departPos="5.10" departSpeed="0.00" departDelay="0.93" arrival="159.00" arrivalLane="22852086#7_0" arrivalPos="6.61" arrivalSpeed="25.31" duration="124.00" routeLength="1990.17" waitingTime="22.00" waitingCount="1" stopTime="0.00" timeLoss="52.19" rerouteNo="1" devices="tripinfo_veh30 routing_veh30" vType="veh_passenger" speedFactor="1.15" vaporized=""/>
    <tripinfo id="veh69" depart="79.00" departLane="-22853142#0_0" departPos="5.10" departSpeed="0.00" departDelay="0.64" arrival="159.00" arrivalLane="48809519#2_0" arrivalPos="108.05" arrivalSpeed="13.85" duration="80.00" routeLength="1217.99" waitingTime="0.00" waitingCount="0" stopTime="0.00" timeLoss="18.38" rerouteNo="1" devices="tripinfo_veh69 routing_veh69" vType="veh_passenger" speedFactor="1.02" vaporized=""/>
    <tripinfo id="veh22" depart="25.00" departLane="-1207066839#2_0" departPos="5.10" departSpeed="0.00" departDelay="0.02" arrival="160.00" arrivalLane="-38829687#2_0" arrivalPos="109.94" arrivalSpeed="19.49" duration="135.00" routeLength="2149.50" waitingTime="7.00" waitingCount="2" stopTime="0.00" timeLoss="35.04" rerouteNo="1" devices="tripinfo_veh22 routing_veh22" vType="veh_passenger" speedFactor="0.89" vaporized=""/>
    <tripinfo id="veh13" depart="15.00" departLane="-123854737#5_0" departPos="5.10" departSpeed="0.00" departDelay="0.24" arrival="162.00" arrivalLane="-215057830#1_0" arrivalPos="26.57" arrivalSpeed="11.48" duration="147.00" routeLength="1544.61" waitingTime="38.00" waitingCount="1" stopTime="0.00" timeLoss="73.90" rerouteNo="1" devices="tripinfo_veh13 routing_veh13" vType="veh_passenger" speedFactor="0.99" vaporized=""/>
    <tripinfo id="veh9" depart="11.00" departLane="22853535_0" departPos="5.10" departSpeed="15.15" departDelay="0.78" arrival="164.00" arrivalLane="-1126715627#5_0" arrivalPos="44.71" arrivalSpeed="14.30" duration="153.00" routeLength="2061.30" waitingTime="16.00" waitingCount="1" stopTime="0.00" timeLoss="70.83" rerouteNo="1" devices="tripinfo_veh9 routing_veh9" vType="veh_passenger" speedFactor="1.09" vaporized=""/>
    <tripinfo id="veh53" depart="61.00" departLane="431494597#0_0" departPos="5.10" departSpeed="0.00" departDelay="0.81" arrival="165.00" arrivalLane="-48749225_0" arrivalPos="9.47" arrivalSpeed="14.81" duration="104.00" routeLength="1415.89" waitingTime="13.00" waitingCount="2" stopTime="0.00" timeLoss="46.46" rerouteNo="1" devices="tripinfo_veh53 routing_veh53" vType="veh_passenger" speedFactor="1.10" vaporized=""/>
    <tripinfo id="veh106" depart="121.00" departLane="123854737#13_0" departPos="5.10" departSpeed="0.00" departDelay="0.62" arrival="171.00" arrivalLane="22853132#10_0" arrivalPos="27.10" arrivalSpeed="13.76" duration="50.00" routeLength="657.34" waitingTime="0.00" waitingCount="0" stopTime="0.00" timeLoss="17.78" rerouteNo="1" devices="tripinfo_veh106 routing_veh106" vType="veh_passenger" speedFactor="1.07" vaporized=""/>
    <tripinfo id="veh7" depart="8.00" departLane="215057884#0_0" departPos="5.10" departSpeed="0.00" departDelay="0.05" arrival="181.00" arrivalLane="152048094#3_0" arrivalPos="168.91" arrivalSpeed="25.47" duration="173.00" routeLength="2411.32" waitingTime="17.00" waitingCount="1" stopTime="0.00" timeLoss="62.81" rerouteNo="1" devices="tripinfo_veh7 routing_veh7" vType="veh_passenger" speedFactor="0.94" vaporized=""/>
    <tripinfo id="veh20" depart="23.00" departLane="22852171#3_0" departPos="5.10" departSpeed="0.00" departDelay="0.29" arrival="184.00" arrivalLane="-123854737#1_0" arrivalPos="2.70" arrivalSpeed="10.34" duration="161.00" routeLength="2293.12" waitingTime="6.00" waitingCount="1" stopTime="0.00" timeLoss="53.75" rerouteNo="1" devices="tripinfo_veh20 routing_veh20" vType="veh_passenger" speedFactor="1.01" vaporized=""/>
    <tripinfo id="veh120" depart="137.00" departLane="22852876#1_0" departPos="5.10" departSpeed="0.00" departDelay="0.72" arrival="191.00" arrivalLane="1177464841_0" arrivalPos="38.22" arrivalSpeed="12.80" duration="54.00" routeLength="658.67" waitingTime="0.00" waitingCount="0" stopTime="0.00" timeLoss="16.91" rerouteNo="1" devices="tripinfo_veh120 routing_veh120" vType="veh_passenger" speedFactor="1.00" vaporized=""/>
    <tripinfo id="veh93" depart="106.00" departLane="935249341#7_0" departPos="5.10" departSpeed="0.00" departDelay="0.38" arrival="199.00" arrivalLane="-622411767_0" arrivalPos="32.31" arrivalSpeed="13.31" duration="93.00" routeLength="1109.78" waitingTime="6.00" waitingCount="2" stopTime="0.00" timeLoss="31.80" rerouteNo="1" devices="tripinfo_veh93 routing_veh93" vType="veh_passenger" speedFactor="0.83" vaporized=""/>
    <tripinfo id="veh59" depart="67.00" departLane="22853249#1_0" departPos="5.10" departSpeed="0.00" departDelay="0.00" arrival="205.00" arrivalLane="1171497218#1_0" arrivalPos="12.03" arrivalSpeed="26.84" duration="138.00" routeLength="2237.21" waitingTime="4.00" waitingCount="1" stopTime="0.00" timeLoss="41.20" rerouteNo="1" devices="tripinfo_veh59 routing_veh59" vType="veh_passenger" speedFactor="0.97" vaporized=""/>
    <tripinfo id="veh28" depart="32.00" departLane="-22850796#3_0" departPos="5.10" departSpeed="0.00" departDelay="0.20" arrival="208.00" arrivalLane="22853265#1_0" arrivalPos="43.07" arrivalSpeed="11.93" duration="176.00" routeLength="1556.81" waitingTime="42.00" waitingCount="3" stopTime="0.00" timeLoss="97.23" rerouteNo="1" devices="tripinfo_veh28 routing_veh28" vType="veh_passenger" speedFactor="0.93" vaporized=""/>
    <tripinfo id="veh19" depart="22.00" departLane="22853813#2_0" departPos="5.10" departSpeed="0.00" departDelay="0.42" arrival="211.00" arrivalLane="215057804#3_0" arrivalPos="49.75" arrivalSpeed="12.86" duration="189.00" routeLength="2150.67" waitingTime="43.00" waitingCount="3" stopTime="0.00" timeLoss="96.57" rerouteNo="1" devices="tripinfo_veh19 routing_veh19" vType="veh_passenger" speedFactor="1.02" vaporized=""/>
    <tripinfo id="veh37" depart="43.00" departLane="22850613_0" departPos="5.10" departSpeed="15.31" departDelay="0.98" arrival="211.00" arrivalLane="-1175026789#1_0" arrivalPos="29.77" arrivalSpeed="24.36" duration="168.00" routeLength="2831.82" waitingTime="8.00" waitingCount="3" stopTime="0.00" timeLoss="62.29" rerouteNo="1" devices="tripinfo_veh37 routing_veh37" vType="veh_passenger" speedFactor="1.10" vaporized=""/>
    <tripinfo id="veh35" depart="40.00" departLane="-22852254#1_0" departPos="5.10" departSpeed="0.00" departDelay="0.25" arrival="213.00" arrivalLane="72545843#1_0" arrivalPos="57.84" arrivalSpeed="12.60" duration="173.00" routeLength="2499.51" waitingTime="15.00" waitingCount="2" stopTime="0.00" timeLoss="66.70" rerouteNo="1" devices="tripinfo_veh35 routing_veh35" vType="veh_passenger" speedFactor="0.97" vaporized=""/>
    <tripinfo id="veh52" depart="60.00" departLane="1135128647#3_1" departPos="5.10" departSpeed="0.00" departDelay="0.95" arrival="215.00" arrivalLane="739701631#4_0" arrivalPos="16.16" arrivalSpeed="27.48" duration="155.00" routeLength="2657.80" waitingTime="24.00" waitingCount="2" stopTime="0.00" timeLoss="58.62" rerouteNo="1" devices="tripinfo_veh52 routing_veh52" vType="veh_passenger" speedFactor="1.02" vaporized=""/>
    <tripinfo id="veh74" depart="85.00" departLane="1120576453_0" departPos="5.10" departSpeed="13.27" departDelay="0.96" arrival="215.00" arrivalLane="1303403582_0" arrivalPos="11.06" arrivalSpeed="12.37" duration="130.00" routeLength="852.56" waitingTime="56.00" waitingCount="3" stopTime="0.00" timeLoss="90.41" rerouteNo="1" devices="tripinfo_veh74 routing_veh74" vType="veh_passenger" speedFactor="0.96" vaporized=""/>
    <tripinfo id="veh131" depart="149.00" departLane="22850796#0_0" departPos="5.10" departSpeed="0.00" departDelay="0.23" arrival="216.00" arrivalLane="72249179#1_0" arrivalPos="103.75" arrivalSpeed="11.32" duration="67.00" routeLength="629.92" waitingTime="0.00" waitingCount="0" stopTime="0.00" timeLoss="9.87" rerouteNo="1" devices="tripinfo_veh131 routing_veh131" vType="veh_passenger" speedFactor="0.82" vaporized=""/>
    <tripinfo id="veh73" depart="83.00" departLane="89198554-AddedOnRampEdge_3" departPos="5.10" departSpeed="0.00" departDelay="0.10" arrival="221.00" arrivalLane="22852189#0_0" arrivalPos="170.01" arrivalSpeed="13.94" duration="138.00" routeLength="1371.23" waitingTime="38.00" waitingCount="1" stopTime="0.00" timeLoss="71.78" rerouteNo="1" devices="tripinfo_veh73 routing_veh73" vType="veh_passenger" speedFactor="1.06" vaporized=""/>
    <tripinfo id="veh11" depart="13.00" departLane="-48747607#2_0" departPos="5.10" departSpeed="0.00" departDelay="0.51" arrival="222.00" arrivalLane="-22852264_0" arrivalPos="155.84" arrivalSpeed="14.34" duration="209.00" routeLength="2586.91" waitingTime="46.00" waitingCount="1" stopTime="0.00" timeLoss="94.60" rerouteNo="1" devices="tripinfo_veh11 routing_veh11" vType="veh_passenger" speedFactor="1.05" vaporized=""/>
    <tripinfo id="veh12" depart="14.00" departLane="658691829_0" departPos="5.10" departSpeed="24.95" departDelay="0.37" arrival="223.00" arrivalLane="1126715629#1_0" arrivalPos="1.26" arrivalSpeed="7.97" duration="209.00" routeLength="3913.23" waitingTime="7.00" waitingCount="1" stopTime="0.00" timeLoss="72.94" rerouteNo="1" devices="tripinfo_veh12 routing_veh12" vType="veh_passenger" speedFactor="1.12" vaporized=""/>
    <tripinfo id="veh10" depart="12.00" departLane="22853516#1_0" departPos="5.10" departSpeed="0.00" departDelay="0.64" arrival="225.00" arrivalLane="22852986#2_0" arrivalPos="51.61" arrivalSpeed="13.15" duration="213.00" routeLength="2566.31" waitingTime="58.00" waitingCount="2" stopTime="0.00" timeLoss="100.08" rerouteNo="1" devices="tripinfo_veh10 routing_veh10" vType="veh_passenger" speedFactor="1.03" vaporized=""/>
    <tripinfo id="veh67" depart="77.00" departLane="-22853114#1_0" departPos="5.10" departSpeed="0.00" departDelay="0.91" arrival="232.00" arrivalLane="-22851214#0_0" arrivalPos="29.62" arrivalSpeed="11.70" duration="155.00" routeLength="1429.58" waitingTime="35.00" waitingCount="1" stopTime="0.00" timeLoss="65.60" rerouteNo="1" devices="tripinfo_veh67 routing_veh67" vType="veh_passenger" speedFactor="0.91" vaporized=""/>
    <tripinfo id="veh105" depart="120.00" departLane="658691829_0" departPos="5.10" departSpeed="19.86" departDelay="0.75" arrival="238.00" arrivalLane="935249341#6_0" arrivalPos="25.17" arrivalSpeed="19.75" duration="118.00" routeLength="1542.38" waitingTime="19.00" waitingCount="1" stopTime="0.00" timeLoss="45.13" rerouteNo="1" devices="tripinfo_veh105 routing_veh105" vType="veh_passenger" speedFactor="0.89" vaporized=""/>
    <tripinfo id="veh168" depart="191.00" departLane="739701631#4_0" departPos="5.10" departSpeed="0.00" departDelay="0.21" arrival="239.00" arrivalLane="1365963638#2_0" arrivalPos="58.85" arrivalSpeed="22.25" duration="48.00" routeLength="428.82" waitingTime="14.00" waitingCount="1" stopTime="0.00" timeLoss="33.15" rerouteNo="1" devices="tripinfo_veh168 routing_veh168" vType="veh_passenger" speedFactor="1.05" vaporized=""/>
    <tripinfo id="veh50" depart="57.00" departLane="-22853166#0_0" departPos="5.10" departSpeed="0.00" departDelay="0.22" arrival="240.00" arrivalLane="22852091_0" arrivalPos="114.87" arrivalSpeed="11.00" duration="183.00" routeLength="1728.48" waitingTime="58.00" waitingCount="2" stopTime="0.00" timeLoss="95.69" rerouteNo="1" devices="tripinfo_veh50 routing_veh50" vType="veh_passenger" speedFactor="0.85" vaporized=""/>
    <tripinfo id="veh108" depart="123.00" departLane="72455856_0" departPos="5.10" departSpeed="0.00" departDelay="0.35" arrival="240.00" arrivalLane="215057812#0_0" arrivalPos="25.52" arrivalSpeed="12.72" duration="117.00" routeLength="2014.09" waitingTime="0.00" waitingCount="0" stopTime="0.00" timeLoss="30.06" rerouteNo="1" devices="tripinfo_veh108 routing_veh108" vType="veh_passenger" speedFactor="1.03" vaporized=""/>
    <tripinfo id="veh172" depart="196.00" departLane="-1340242143_0" departPos="5.10" departSpeed="6.30" departDelay="0.66" arrival="240.00" arrivalLane="1189375393_0" arrivalPos="45.10" arrivalSpeed="12.95" duration="44.00" routeLength="451.98" waitingTime="0.00" waitingCount="0" stopTime="0.00" timeLoss="16.71" rerouteNo="1" devices="tripinfo_veh172 routing_veh172" vType="veh_passenger" speedFactor="0.98" vaporized=""/>
    <tripinfo id="veh15" depart="18.00" departLane="22853523#0_0" departPos="5.10" departSpeed="0.00" departDelay="0.96" arrival="241.00" arrivalLane="22853274#0_0" arrivalPos="6.28" arrivalSpeed="2.16" duration="223.00" routeLength="1816.59" waitingTime="87.00" waitingCount="2" stopTime="0.00" timeLoss="131.29" rerouteNo="1" devices="tripinfo_veh15 routing_veh15" vType="veh_passenger" speedFactor="0.88" vaporized=""/>
    <tripinfo id="veh43" depart="49.00" departLane="935249341#3_0" departPos="5.10" departSpeed="0.00" departDelay="0.17" arrival="241.00" arrivalLane="1278096558_0" arrivalPos="119.79" arrivalSpeed="27.47" duration="192.00" routeLength="2606.59" waitingTime="32.00" waitingCount="3" stopTime="0.00" timeLoss="90.43" rerouteNo="1" devices="tripinfo_veh43 routing_veh43" vType="veh_passenger" speedFactor="1.04" vaporized=""/>
    <tripinfo id="veh65" depart="74.00" departLane="-1212986591_0" departPos="5.10" departSpeed="2.45" departDelay="0.18" arrival="249.00" arrivalLane="123854740_0" arrivalPos="46.40" arrivalSpeed="1.72" duration="175.00" routeLength="1259.61" waitingTime="0.00" waitingCount="0" stopTime="0.00" timeLoss="37.53" rerouteNo="1" devices="tripinfo_veh65 routing_veh65" vType="veh_passenger" speedFactor="0.88" vaporized=""/>
    <tripinfo id="veh160" depart="182.00" departLane="22853323#3_0" departPos="5.10" departSpeed="0.00" departDelay="0.29" arrival="251.00" arrivalLane="-22850723#0_0" arrivalPos="46.68" arrivalSpeed="21.58" duration="69.00" routeLength="1016.07" waitingTime="0.00" waitingCount="0" stopTime="0.00" timeLoss="20.00" rerouteNo="1" devices="tripinfo_veh160 routing_veh160" vType="veh_passenger" speedFactor="1.18" vaporized=""/>
    <tripinfo id="veh129" depart="147.00" departLane="1367614684_0" departPos="5.10" departSpeed="9.15" departDelay="0.50" arrival="252.00" arrivalLane="792561895_0" arrivalPos="59.61" arrivalSpeed="15.93" duration="105.00" routeLength="1912.66" waitingTime="0.00" waitingCount="0" stopTime="0.00" timeLoss="25.98" rerouteNo="1" devices="tripinfo_veh129 routing_veh129" vType="veh_passenger" speedFactor="1.15" vaporized=""/>
    <tripinfo id="veh95" depart="108.00" departLane="1123865132_0" departPos="5.10" departSpeed="0.00" departDelay="0.11" arrival="253.00" arrivalLane="48749357#0_0" arrivalPos="78.41" arrivalSpeed="19.22" duration="145.00" routeLength="1622.38" waitingTime="24.00" waitingCount="3" stopTime="0.00" timeLoss="81.30" rerouteNo="1" devices="tripinfo_veh95 routing_veh95" vType="veh_passenger" speedFactor="1.09" vaporized=""/>
    <tripinfo id="veh124" depart="141.00" departLane="935249341#7_0" departPos="5.10" departSpeed="0.00" departDelay="0.18" arrival="253.00" arrivalLane="658691825#7_1" arrivalPos="14.10" arrivalSpeed="24.90" duration="112.00" routeLength="1684.08" waitingTime="7.00" waitingCount="1" stopTime="0.00" timeLoss="37.40" rerouteNo="1" devices="tripinfo_veh124 routing_veh124" vType="veh_passenger" speedFactor="0.94" vaporized=""/>
    <tripinfo id="veh91" depart="104.00" departLane="22853813#2_0" departPos="5.10" departSpeed="0.00" departDelay="0.65" arrival="256.00" arrivalLane="151509168#4_0" arrivalPos="11.61" arrivalSpeed="22.01" duration="152.00" routeLength="1177.05" waitingTime="47.00" waitingCount="3" stopTime="0.00" timeLoss="102.44" rerouteNo="1" devices="tripinfo_veh91 routing_veh91" vType="veh_passenger" speedFactor="1.02" vaporized=""/>
    <tripinfo id="veh76" depart="87.00" departLane="-48052852#1_0" departPos="5.10" departSpeed="14.34" departDelay="0.69" arrival="259.00" arrivalLane="215057884#0_0" arrivalPos="15.15" arrivalSpeed="12.02" duration="172.00" routeLength="2986.17" waitingTime="10.00" waitingCount="2" stopTime="0.00" timeLoss="53.13" rerouteNo="1" devices="tripinfo_veh76 routing_veh76" vType="veh_passenger" speedFactor="1.03" vaporized=""/>
    <tripinfo id="veh57" depart="65.00" departLane="1364910098#1_0" departPos="5.10" departSpeed="0.00" departDelay="0.27" arrival="260.00" arrivalLane="-22852244#3_0" arrivalPos="10.24" arrivalSpeed="15.38" duration="195.00" routeLength="2632.28" waitingTime="39.00" waitingCount="2" stopTime="0.00" timeLoss="91.89" rerouteNo="1" devices="tripinfo_veh57 routing_veh57" vType="veh_passenger" speedFactor="1.14" vaporized=""/>
    <tripinfo id="veh27" depart="31.00" departLane="215057846#2_0" departPos="5.10" departSpeed="0.00" departDelay="0.34" arrival="262.00" arrivalLane="22850796#4_0" arrivalPos="48.85" arrivalSpeed="15.34" duration="231.00" routeLength="3192.10" waitingTime="36.00" waitingCount="3" stopTime="0.00" timeLoss="114.58" rerouteNo="1" devices="tripinfo_veh27 routing_veh27" vType="veh_passenger" speedFactor="1.13" vaporized=""/>
    <tripinfo id="veh36" depart="41.00" departLane="438388939_0" departPos="5.10" departSpeed="16.39" departDelay="0.12" arrival="269.00" arrivalLane="1075187585#2_0" arrivalPos="0.20" arrivalSpeed="25.03" duration="228.00" routeLength="1531.86" waitingTime="113.00" waitingCount="3" stopTime="0.00" timeLoss="169.96" rerouteNo="1" devices="tripinfo_veh36 routing_veh36" vType="veh_passenger" speedFactor="1.18" vaporized=""/>
    <tripinfo id="veh130" depart="148.00" departLane="22853641#1_0" departPos="5.10" departSpeed="0.00" departDelay="0.36" arrival="270.00" arrivalLane="778337722#0_0" arrivalPos="1.82" arrivalSpeed="6.34" duration="122.00" routeLength="1921.36" waitingTime="3.00" waitingCount="1" stopTime="0.00" timeLoss="47.61" rerouteNo="1" devices="tripinfo_veh130 routing_veh130" vType="veh_passenger" speedFactor="1.03" vaporized=""/>
    <tripinfo id="veh152" depart="173.00" departLane="22853274#1_0" departPos="5.10" departSpeed="0.00" departDelay="0.38" arrival="270.00" arrivalLane="48891306#1-AddedOnRampEdge_1" arrivalPos="94.33" arrivalSpeed="17.51" duration="97.00" routeLength="1350.36" waitingTime="1.00" waitingCount="1" stopTime="0.00" timeLoss="30.06" rerouteNo="1" devices="tripinfo_veh152 routing_veh152" vType="veh_passenger" speedFactor="0.97" vaporized=""/>
    <tripinfo id="veh38" depart="44.00" departLane="48891306#1-AddedOnRampEdge_1" departPos="5.10" departSpeed="0.00" departDelay="0.84" arrival="271.00" arrivalLane="22853242#1_0" arrivalPos="19.62" arrivalSpeed="12.20" duration="227.00" routeLength="1753.54" waitingTime="92.00" waitingCount="2" stopTime="0.00" timeLoss="136.83" rerouteNo="1" devices="tripinfo_veh38 routing_veh38" vType="veh_passenger" speedFactor="0.90" vaporized=""/>
    <tripinfo id="veh75" depart="86.00" departLane="-152385151#2_0" departPos="5.10" departSpeed="0.00" departDelay="0.82" arrival="271.00" arrivalLane="-22853618#2_0" arrivalPos="24.91" arrivalSpeed="13.65" duration="185.00" routeLength="2324.83" waitingTime="26.00" waitingCount="4" stopTime="0.00" timeLoss="78.58" rerouteNo="1" devices="tripinfo_veh75 routing_veh75" vType="veh_passenger" speedFactor="0.98" vaporized=""/>
    <tripinfo id="veh134" depart="153.00" departLane="-22853275#3_0" departPos="5.10" departSpeed="0.00" departDelay="0.82" arrival="272.00" arrivalLane="22850718_0" arrivalPos="26.83" arrivalSpeed="11.78" duration="119.00" routeLength="1695.21" waitingTime="0.00" waitingCount="0" stopTime="0.00" timeLoss="30.83" rerouteNo="1" devices="tripinfo_veh134 routing_veh134" vType="veh_passenger" speedFactor="1.03" vaporized=""/>
    <tripinfo id="veh89" depart="103.00" departLane="753841885#7_0" departPos="5.10" departSpeed="0.00" departDelay="1.93" arrival="273.00" arrivalLane="-215057851#3_0" arrivalPos="14.96" arrivalSpeed="10.97" duration="170.00" routeLength="2242.18" waitingTime="44.00" waitingCount="1" stopTime="0.00" timeLoss="80.92" rerouteNo="1" devices="tripinfo_veh89 routing_veh89" vType="veh_passenger" speedFactor="1.01" vaporized=""/>
    <tripinfo id="veh197" depart="224.00" departLane="22853664#13_0" departPos="5.10" departSpeed="0.00" departDelay="0.27" arrival="276.00" arrivalLane="22853469_0" arrivalPos="23.66" arrivalSpeed="11.51" duration="52.00" routeLength="554.34" waitingTime="0.00" waitingCount="0" stopTime="0.00" timeLoss="18.58" rerouteNo="1" devices="tripinfo_veh197 routing_veh197" vType="veh_passenger" speedFactor="0.84" vaporized=""/>
    <tripinfo id="veh17" depart="20.00" departLane="-72245644#7_0" departPos="5.10" departSpeed="0.00" departDelay="0.69" arrival="277.00" arrivalLane="207568661#1_0" arrivalPos="47.13" arrivalSpeed="25.85" duration="257.00" routeLength="2953.40" waitingTime="65.00" waitingCount="4" stopTime="0.00" timeLoss="124.75" rerouteNo="1" devices="tripinfo_veh17 routing_veh17" vType="veh_passenger" speedFactor="0.94" vaporized=""/>
    <tripinfo id="veh157" depart="179.00" departLane="-1187270699_0" departPos="5.10" departSpeed="12.88" departDelay="0.70" arrival="277.00" arrivalLane="22853323#2_0" arrivalPos="27.58" arrivalSpeed="25.27" duration="98.00" routeLength="1542.50" waitingTime="0.00" waitingCount="0" stopTime="0.00" timeLoss="20.88" rerouteNo="1" devices="tripinfo_veh157 routing_veh157" vType="veh_passenger" speedFactor="0.93" vaporized=""/>
    <tripinfo id="veh107" depart="122.00" departLane="-215057884#1_0" departPos="5.10" departSpeed="0.00" departDelay="0.48" arrival="283.00" arrivalLane="72552324_0" arrivalPos="86.71" arrivalSpeed="13.08" duration="161.00" routeLength="1555.39" waitingTime="43.00" waitingCount="2" stopTime="0.00" timeLoss="87.58" rerouteNo="1" devices="tripinfo_veh107 routing_veh107" vType="veh_passenger" speedFactor="1.01" vaporized=""/>
    <tripinfo id="veh49" depart="56.00" departLane="22851066#1_0" departPos="5.10" departSpeed="0.00" departDelay="0.35" arrival="286.00" arrivalLane="1365963638#3_2" arrivalPos="54.10" arrivalSpeed="23.20" duration="230.00" routeLength="1993.13" waitingTime="60.00" waitingCount="3" stopTime="0.00" timeLoss="129.52" rerouteNo="1" devices="tripinfo_veh49 routing_veh49" vType="veh_passenger" speedFactor="0.85" vaporized=""/>
    <tripinfo id="veh1" depart="2.00" departLane="-22853293#0_0" departPos="5.10" departSpeed="0.00" departDelay="0.86" arrival="287.00" arrivalLane="-22853555_0" arrivalPos="83.00" arrivalSpeed="11.87" duration="285.00" routeLength="1797.44" waitingTime="132.00" waitingCount="3" stopTime="0.00" timeLoss="182.97" rerouteNo="1" devices="tripinfo_veh1 routing_veh1" vType="veh_passenger" speedFactor="0.94" vaporized=""/>
    <tripinfo id="veh176" depart="200.00" departLane="-22853092#1_0" departPos="5.10" departSpeed="0.00" departDelay="0.12" arrival="290.00" arrivalLane="22853087#5_0" arrivalPos="10.91" arrivalSpeed="8.36" duration="90.00" routeLength="1201.32" waitingTime="0.00" waitingCount="0" stopTime="0.00" timeLoss="23.98" rerouteNo="1" devices="tripinfo_veh176 routing_veh176" vType="veh_passenger" speedFactor="0.89" vaporized=""/>
    <tripinfo id="veh96" depart="110.00" departLane="1236032562#0_0" departPos="5.10" departSpeed="0.00" departDelay="0.98" arrival="301.00" arrivalLane="-1239092984#1_0" arrivalPos="61.16" arrivalSpeed="18.13" duration="191.00" routeLength="2129.52" waitingTime="58.00" waitingCount="4" stopTime="0.00" timeLoss="114.42" rerouteNo="1" devices="tripinfo_veh96 routing_veh96" vType="veh_passenger" speedFactor="1.06" vaporized=""/>